% Model:              electrostatic.mph
% Version:            COMSOL 5.6.0.401
% Date:               May 4 2022, 19:13
% Table:              Table 1 - System Matrix 1
% Row                    Column                   Value
1                        1                        -7.391298014785363E-12
2                        1                        1.819828324862453E-12
3                        1                        -4.549570812156129E-13
4                        1                        -1.5092041154224992E-12
5                        1                        6.036816461689994E-12
8                        1                        -4.99604808290346E-13
9                        1                        1.9984192331613846E-12
1                        2                        1.819828324862453E-12
2                        2                        -2.1893073739717835E-11
3                        2                        1.8198283248624564E-12
5                        2                        1.2345585982778623E-11
6                        2                        5.907831107214314E-12
1                        3                        -4.549570812156129E-13
2                        3                        1.8198283248624564E-12
3                        3                        -1.617216683847585E-11
4                        3                        -2.809853751952792E-12
6                        3                        1.123941500781116E-11
10                       3                        2.3555558423158348E-12
11                       3                        -5.888889605789586E-13
14                       3                        -1.5370224857445932E-12
15                       3                        6.148089942978374E-12
1                        4                        -1.5092041154224992E-12
3                        4                        -2.809853751952792E-12
4                        4                        -3.2874124205750587E-11
5                        4                        6.0368164616900025E-12
6                        4                        1.1239415007811163E-11
7                        4                        1.1108621510737318E-11
8                        4                        -2.7771553776843303E-12
14                       4                        -1.935145884131412E-12
17                       4                        7.740583536525646E-12
19                       4                        -1.926682272725843E-12
21                       4                        7.706729090903374E-12
1                        5                        6.036816461689994E-12
2                        5                        1.2345585982778623E-11
4                        5                        6.0368164616900025E-12
5                        5                        -4.334491552240713E-11
6                        5                        3.639656649724892E-12
7                        5                        3.9968384663227555E-12
9                        5                        1.128920150020088E-11
2                        6                        5.907831107214314E-12
3                        6                        1.123941500781116E-11
4                        6                        1.1239415007811163E-11
5                        6                        3.639656649724892E-12
6                        6                        -4.2952915236360437E-11
15                       6                        6.557695271393167E-12
17                       6                        4.36890219240575E-12
4                        7                        1.1108621510737318E-11
5                        7                        3.9968384663227555E-12
7                        7                        -4.3031658883128925E-11
8                        7                        1.1108621510737315E-11
9                        7                        6.165801816165641E-12
18                       7                        7.648885584243905E-12
21                       7                        3.002889994922006E-12
1                        8                        -4.99604808290346E-13
4                        8                        -2.7771553776843303E-12
7                        8                        1.1108621510737315E-11
8                        8                        -1.612197563863497E-11
9                        8                        1.9984192331613874E-12
12                       8                        -8.738917660367848E-13
13                       8                        3.49556706414714E-12
18                       8                        4.893359710134149E-12
19                       8                        -1.2233399275335364E-12
1                        9                        1.9984192331613846E-12
5                        9                        1.128920150020088E-11
7                        9                        6.165801816165641E-12
8                        9                        1.9984192331613874E-12
9                        9                        -2.1451841782689285E-11
3                        10                       2.3555558423158348E-12
10                       10                       -2.0711057039804133E-11
11                       10                       2.3555558423158356E-12
15                       10                       8.072667661621514E-12
16                       10                       7.927277693550958E-12
3                        11                       -5.888889605789586E-13
10                       11                       2.3555558423158356E-12
11                       11                       -1.5486731165896348E-11
14                       11                       -2.0058846103583577E-12
16                       11                       8.023538441433427E-12
23                       11                       2.655730641832643E-12
24                       11                       -6.639326604581605E-13
25                       11                       -1.9035374905699802E-12
26                       11                       7.61414996227992E-12
8                        12                       -8.738917660367848E-13
12                       12                       -1.5373710186515396E-11
13                       12                       3.4955670641471397E-12
19                       12                       -1.6568568662264338E-12
20                       12                       6.627427464905736E-12
29                       12                       -7.18141498278173E-13
30                       12                       2.8725659931126925E-12
31                       12                       -1.8756799316304143E-12
33                       12                       7.502719726521656E-12
8                        13                       3.49556706414714E-12
12                       13                       3.4955670641471397E-12
13                       13                       -2.0449764980412988E-11
18                       13                       6.67480142677246E-12
20                       13                       6.783829425346255E-12
3                        14                       -1.5370224857445932E-12
4                        14                       -1.935145884131412E-12
11                       14                       -2.0058846103583577E-12
14                       14                       -3.1118946619740547E-11
15                       14                       6.148089942978373E-12
16                       14                       8.023538441433427E-12
17                       14                       7.740583536525643E-12
19                       14                       -1.4701703785390244E-12
22                       14                       5.880681514156102E-12
25                       14                       -1.3413800469220017E-12
28                       14                       5.36552018768801E-12
35                       14                       -2.0833788008848067E-12
36                       14                       8.333515203539227E-12
3                        15                       6.148089942978374E-12
6                        15                       6.557695271393167E-12
10                       15                       8.072667661621514E-12
14                       15                       6.148089942978373E-12
15                       15                       -4.177089853644671E-11
16                       15                       4.711111684631653E-12
17                       15                       1.0133244032843642E-11
10                       16                       7.927277693550958E-12
11                       16                       8.023538441433427E-12
14                       16                       8.023538441433427E-12
15                       16                       4.711111684631653E-12
16                       16                       -4.1302392155996854E-11
26                       16                       5.2899212632789025E-12
28                       16                       7.327004631668503E-12
4                        17                       7.740583536525646E-12
6                        17                       4.36890219240575E-12
14                       17                       7.740583536525643E-12
15                       17                       1.0133244032843642E-11
17                       17                       -4.1947590875953094E-11
21                       17                       4.199704980089627E-12
22                       17                       7.764572597562795E-12
7                        18                       7.648885584243905E-12
8                        18                       4.893359710134149E-12
13                       18                       6.67480142677246E-12
18                       18                       -4.20295820808526E-11
19                       18                       4.893359710134147E-12
20                       18                       6.9911341282942576E-12
21                       18                       1.0928041521273696E-11
4                        19                       -1.926682272725843E-12
8                        19                       -1.2233399275335364E-12
12                       19                       -1.6568568662264338E-12
14                       19                       -1.4701703785390244E-12
18                       19                       4.893359710134147E-12
19                       19                       -3.029310910644894E-11
20                       19                       6.627427464905735E-12
21                       19                       7.70672909090337E-12
22                       19                       5.880681514156098E-12
31                       19                       -1.261719962093141E-12
34                       19                       5.046879848372565E-12
35                       19                       -9.289349042961002E-13
38                       19                       3.715739617184403E-12
39                       19                       -1.6299987240689147E-12
41                       19                       6.519994896275657E-12
12                       20                       6.627427464905736E-12
13                       20                       6.783829425346255E-12
18                       20                       6.9911341282942576E-12
19                       20                       6.627427464905735E-12
20                       20                       -4.0983113463878E-11
33                       20                       5.920603021480475E-12
34                       20                       8.032691958945556E-12
4                        21                       7.706729090903374E-12
7                        21                       3.002889994922006E-12
17                       21                       4.199704980089627E-12
18                       21                       1.0928041521273696E-11
19                       21                       7.70672909090337E-12
21                       21                       -4.246756647975014E-11
22                       21                       8.923471801658078E-12
14                       22                       5.880681514156102E-12
17                       22                       7.764572597562795E-12
19                       22                       5.880681514156098E-12
21                       22                       8.923471801658078E-12
22                       22                       -4.186007116481369E-11
36                       22                       4.0602380986627254E-12
38                       22                       9.350425638617908E-12
11                       23                       2.655730641832643E-12
23                       23                       -2.058475220776873E-11
24                       23                       2.655730641832642E-12
26                       23                       7.371995631212159E-12
27                       23                       7.901295292891289E-12
11                       24                       -6.639326604581605E-13
23                       24                       2.655730641832642E-12
24                       24                       -1.5408651508987626E-11
25                       24                       -1.8613778354741667E-12
27                       24                       7.445511341896665E-12
43                       24                       2.8825147951863238E-12
44                       24                       -7.206286987965807E-13
47                       24                       -1.8902779749336417E-12
48                       24                       7.561111899734565E-12
11                       25                       -1.9035374905699802E-12
14                       25                       -1.3413800469220017E-12
24                       25                       -1.8613778354741667E-12
25                       25                       -3.083431698223378E-11
26                       25                       7.61414996227992E-12
27                       25                       7.445511341896665E-12
28                       25                       5.365520187688008E-12
35                       25                       -2.0030613505389285E-12
37                       25                       8.012245402155714E-12
47                       25                       -1.439374828451013E-12
50                       25                       5.7574993138040535E-12
51                       25                       -1.729374108788516E-12
52                       25                       6.917496435154064E-12
11                       26                       7.61414996227992E-12
16                       26                       5.2899212632789025E-12
23                       26                       7.371995631212159E-12
25                       26                       7.61414996227992E-12
26                       26                       -4.117608732396145E-11
27                       26                       5.311461283665267E-12
28                       26                       7.974409221245294E-12
23                       27                       7.901295292891289E-12
24                       27                       7.445511341896665E-12
25                       27                       7.445511341896665E-12
26                       27                       5.311461283665267E-12
27                       27                       -4.112130300392956E-11
48                       27                       5.575334589343741E-12
50                       27                       7.44218915423595E-12
14                       28                       5.36552018768801E-12
16                       28                       7.327004631668503E-12
25                       28                       5.365520187688008E-12
26                       28                       7.974409221245294E-12
28                       28                       -4.1153059983794786E-11
36                       28                       7.804000987044493E-12
37                       28                       7.316604768460497E-12
12                       29                       -7.18141498278173E-13
29                       29                       -1.5392086609754134E-11
30                       29                       2.8725659931126937E-12
31                       29                       -1.9365659572718007E-12
32                       29                       7.7462638290872E-12
55                       29                       -7.200745163246101E-13
56                       29                       2.8802980652984407E-12
57                       29                       -1.755913564710134E-12
59                       29                       7.023654258840536E-12
12                       30                       2.8725659931126925E-12
29                       30                       2.8725659931126937E-12
30                       30                       -2.0526764073944575E-11
32                       30                       6.972747494097712E-12
33                       30                       7.808884593621487E-12
12                       31                       -1.8756799316304143E-12
19                       31                       -1.261719962093141E-12
29                       31                       -1.9365659572718007E-12
31                       31                       -3.133511857042546E-11
32                       31                       7.7462638290872E-12
33                       31                       7.502719726521657E-12
34                       31                       5.046879848372567E-12
39                       31                       -2.589255150801868E-12
40                       31                       1.0357020603207463E-11
57                       31                       -1.464443557195524E-12
60                       31                       5.857774228782099E-12
61                       31                       -1.3173749644824196E-12
63                       31                       5.26949985792968E-12
29                       32                       7.7462638290872E-12
30                       32                       6.972747494097712E-12
31                       32                       7.7462638290872E-12
32                       32                       -4.103535912559167E-11
33                       32                       5.745131986225367E-12
59                       32                       5.873593855195489E-12
60                       32                       6.951358131898711E-12
12                       33                       7.502719726521656E-12
20                       33                       5.920603021480475E-12
30                       33                       7.808884593621487E-12
31                       33                       7.502719726521657E-12
32                       33                       5.745131986225367E-12
33                       33                       -4.10601125574096E-11
34                       33                       6.58005350303897E-12
19                       34                       5.046879848372565E-12
20                       34                       8.032691958945556E-12
31                       34                       5.046879848372567E-12
33                       34                       6.58005350303897E-12
34                       34                       -4.200675705691406E-11
40                       34                       5.884347065995663E-12
41                       34                       1.1415904832188757E-11
14                       35                       -2.0833788008848067E-12
19                       35                       -9.289349042961002E-13
25                       35                       -2.0030613505389285E-12
35                       35                       -3.167936764561951E-11
36                       35                       8.333515203539225E-12
37                       35                       8.01224540215571E-12
38                       35                       3.7157396171844065E-12
39                       35                       -2.683528721317582E-12
42                       35                       1.0734114885270322E-11
51                       35                       -1.724967942712744E-12
54                       35                       6.899871770850976E-12
66                       35                       -1.1359174954563575E-12
67                       35                       4.5436699818254365E-12
14                       36                       8.333515203539227E-12
22                       36                       4.0602380986627254E-12
28                       36                       7.804000987044493E-12
35                       36                       8.333515203539225E-12
36                       36                       -4.153404665310527E-11
37                       36                       5.441119112097079E-12
38                       36                       7.561658048222533E-12
25                       37                       8.012245402155714E-12
28                       37                       7.316604768460497E-12
35                       37                       8.01224540215571E-12
36                       37                       5.441119112097079E-12
37                       37                       -4.1129355764316004E-11
52                       37                       5.682945502398103E-12
54                       37                       6.6641955770489115E-12
19                       38                       3.715739617184403E-12
22                       38                       9.350425638617908E-12
35                       38                       3.7157396171844065E-12
36                       38                       7.561658048222533E-12
38                       38                       -4.2447213832658273E-11
41                       38                       1.0948008184893427E-11
42                       38                       7.1556427265556145E-12
19                       39                       -1.6299987240689147E-12
31                       39                       -2.589255150801868E-12
35                       39                       -2.683528721317582E-12
39                       39                       -3.2698471467876946E-11
40                       39                       1.0357020603207467E-11
41                       39                       6.519994896275663E-12
42                       39                       1.0734114885270326E-11
61                       39                       -2.2683881372741085E-12
64                       39                       9.073552549096433E-12
66                       39                       -1.7283197558298564E-12
68                       39                       6.913279023319428E-12
31                       40                       1.0357020603207463E-11
34                       40                       5.884347065995663E-12
39                       40                       1.0357020603207467E-11
40                       40                       -4.253458350604935E-11
41                       40                       4.173156675264623E-12
63                       40                       8.025067255055344E-12
64                       40                       3.737971303318801E-12
19                       41                       6.519994896275657E-12
34                       41                       1.1415904832188757E-11
38                       41                       1.0948008184893427E-11
39                       41                       6.519994896275663E-12
40                       41                       4.173156675264623E-12
41                       41                       -4.2948300620604163E-11
42                       41                       3.371241135706052E-12
35                       42                       1.0734114885270322E-11
38                       42                       7.1556427265556145E-12
39                       42                       1.0734114885270326E-11
41                       42                       3.371241135706052E-12
42                       42                       -4.281252252651791E-11
67                       42                       7.328031031953334E-12
68                       42                       3.489377861762267E-12
24                       43                       2.8825147951863238E-12
43                       43                       -2.0518007818943206E-11
44                       43                       2.8825147951863238E-12
48                       43                       7.072943583337426E-12
49                       43                       7.680034645233141E-12
24                       44                       -7.206286987965807E-13
43                       44                       2.8825147951863238E-12
44                       44                       -1.5391506893737893E-11
45                       44                       2.8480437989266643E-12
46                       44                       -7.120109497316659E-13
47                       44                       -1.7758590672674883E-12
49                       44                       7.103436269069954E-12
74                       44                       -1.9220035821169034E-12
75                       44                       7.688014328467614E-12
44                       45                       2.8480437989266643E-12
45                       45                       -2.052326399734393E-11
46                       45                       2.8480437989266643E-12
75                       45                       7.198233148536545E-12
76                       45                       7.628943250954067E-12
44                       46                       -7.120109497316659E-13
45                       46                       2.8480437989266643E-12
46                       46                       -1.5388357576152573E-11
70                       46                       2.878936805863421E-12
71                       46                       -7.197342014658552E-13
74                       46                       -1.8085496813505556E-12
76                       46                       7.2341987254022215E-12
78                       46                       -1.8891576928361214E-12
79                       46                       7.556630771344484E-12
24                       47                       -1.8902779749336417E-12
25                       47                       -1.439374828451013E-12
44                       47                       -1.7758590672674883E-12
47                       47                       -3.078615233196136E-11
48                       47                       7.561111899734568E-12
49                       47                       7.103436269069954E-12
50                       47                       5.757499313804055E-12
51                       47                       -1.834127080828615E-12
53                       47                       7.336508323314458E-12
74                       47                       -1.4093348266562167E-12
77                       47                       5.637339306624868E-12
82                       47                       -1.913076999183492E-12
83                       47                       7.652307996733966E-12
24                       48                       7.561111899734565E-12
27                       48                       5.575334589343741E-12
43                       48                       7.072943583337426E-12
47                       48                       7.561111899734568E-12
48                       48                       -4.105455861510404E-11
49                       48                       5.765029590372627E-12
50                       48                       7.519027052581126E-12
43                       49                       7.680034645233141E-12
44                       49                       7.103436269069954E-12
47                       49                       7.103436269069954E-12
48                       49                       5.765029590372627E-12
49                       49                       -4.105083118047817E-11
75                       49                       5.651809000751392E-12
77                       49                       7.747085405981117E-12
25                       50                       5.7574993138040535E-12
27                       50                       7.44218915423595E-12
47                       50                       5.757499313804055E-12
48                       50                       7.519027052581126E-12
50                       50                       -4.102887906141964E-11
52                       50                       7.3818669337353E-12
53                       50                       7.170797293259173E-12
25                       51                       -1.729374108788516E-12
35                       51                       -1.724967942712744E-12
47                       51                       -1.834127080828615E-12
51                       51                       -3.0834983202233626E-11
52                       51                       6.917496435154064E-12
53                       51                       7.336508323314458E-12
54                       51                       6.899871770850975E-12
65                       51                       6.272374574317742E-12
66                       51                       -1.5680936435794351E-12
82                       51                       -1.3909523525627214E-12
85                       51                       5.563809410250887E-12
86                       51                       -2.0308126056058585E-12
87                       51                       8.123250422423433E-12
25                       52                       6.917496435154064E-12